ITEM: TIMESTEP
0
ITEM: NUMBER OF ATOMS
88
ITEM: BOX BOUNDS pp pp pp
0.0000000000000000e+00 5.0000000000000000e+01
0.0000000000000000e+00 5.0000000000000000e+01
0.0000000000000000e+00 5.0000000000000000e+01
ITEM: ATOMS id type x y z
80 2 20.3863 14.3602 26.2968
71 2 18.2694 15.5522 26.2975
70 2 19.1813 15.8828 26.0465
79 2 20.1885 15.3116 26.0514
69 1 20.0786 16.2897 25.861
68 2 20.5478 17.1561 25.6674
66 2 21.5102 18.8962 25.3791
67 2 21.0259 18.0252 25.5079
65 2 21.9989 19.7688 25.2774
63 2 22.983 21.5204 25.1411
64 2 22.4906 20.6439 25.1991
62 2 23.475 22.3989 25.1007
61 2 23.9661 23.2783 25.0758
60 2 24.4571 24.1572 25.065
1 1 24.9589 25.0309 25.0679
31 2 24.4686 25.906 25.0804
2 2 25.966 25.0353 25.0745
3 2 26.9771 25.0542 25.1027
4 2 27.9814 25.0872 25.1717
5 2 28.9709 25.1345 25.3493
6 2 29.8848 25.2142 25.7609
7 2 30.8452 25.2927 26.0259
8 2 31.7467 25.2703 25.5856
9 2 32.5755 25.703 25.9211
10 2 33.4633 26.0129 26.2721
32 2 24.0116 26.7936 25.1095
33 2 23.5617 27.692 25.1589
34 2 23.1239 28.5904 25.2368
35 2 22.6998 29.493 25.3699
36 2 22.259 30.3439 25.6501
37 2 21.7659 31.0747 26.1086
38 2 21.5408 32.0371 26.2522
51 2 20.946 32.9668 26.4585
83 2 21.2906 11.7372 27.4267
82 2 21.0146 12.5801 26.9636
74 2 15.7776 14.6505 27.6336
81 2 20.6914 13.4531 26.5931
72 2 17.3516 15.3123 26.6199
73 2 16.4877 15.0503 27.054
17 2 29.101 25.901 27.8969
15 2 30.878 25.4365 27.1299
16 2 30.019 25.6191 27.605
14 2 31.7601 25.5097 26.6679
12 2 33.5843 25.8675 26.848
13 2 32.702 25.4262 26.9927
11 1 34.2154 26.5952 26.5778
21 2 34.736 27.4079 26.831
22 2 35.0141 28.346 27.0578
23 2 35.0474 29.3289 27.2507
54 2 21.5288 30.5243 27.6358
24 2 34.8604 30.2915 27.4373
52 2 20.7924 32.1794 27.0595
53 2 21.2803 31.3134 27.0708
25 2 34.4924 31.2051 27.6103
26 2 33.9822 32.0506 27.7593
39 2 21.4923 32.96 26.6445
40 1 22.0014 33.8157 26.5469
27 2 33.356 32.8229 27.8779
50 2 21.0325 33.9206 26.7406
41 2 22.6285 34.5822 26.716
42 2 23.3712 35.187 26.9965
43 2 24.2761 35.559 27.2062
44 2 25.2384 35.7715 27.3952
45 2 26.2212 35.8505 27.566
46 2 27.2094 35.812 27.7149
47 2 28.1917 35.6658 27.8379
48 2 29.1562 35.4194 27.9314
87 2 19.0428 10.8331 29.2476
88 1 18.1654 11.3116 29.2718
86 2 19.9631 10.4683 29.1037
84 2 21.3673 10.9362 28.0199
85 2 20.8793 10.3991 28.7087
76 2 15.8899 13.1708 28.8016
78 2 17.3315 11.86 29.214
77 2 16.5549 12.474 29.0708
75 2 15.5218 13.9614 28.3113
18 2 28.1624 26.2408 28.008
20 2 26.3386 27.0686 28.1331
59 1 25.454 27.5411 28.1554
19 2 27.2428 26.6328 28.0841
56 2 22.9317 29.1732 28.0574
58 2 24.5904 28.0473 28.1512
57 2 23.748 28.5901 28.119
55 2 22.1597 29.8068 27.9422
28 2 32.6369 33.5149 27.9615
49 2 30.0932 35.0776 27.9923
29 2 31.8456 34.1221 28.0084
30 1 30.9931 34.6439 28.0183
ITEM: TIMESTEP
1000
ITEM: NUMBER OF ATOMS
88
ITEM: BOX BOUNDS pp pp pp
0.0000000000000000e+00 5.0000000000000000e+01
0.0000000000000000e+00 5.0000000000000000e+01
0.0000000000000000e+00 5.0000000000000000e+01
ITEM: ATOMS id type x y z
80 2 19.9957 15.0001 26.1986
71 2 18.8481 15.8717 26.669
70 2 19.4116 16.7733 26.7502
79 2 19.8334 15.8633 25.6564
69 1 20.081 16.753 26.3025
68 2 20.9508 17.4665 26.2992
66 2 21.5724 19.4191 26.374
67 2 21.6255 18.2831 26.2542
65 2 22.1178 20.3343 26.174
63 2 23.288 21.8752 25.5019
64 2 22.6369 21.1093 25.6716
62 2 23.54 22.6706 25.1675
61 2 24.0222 23.7187 24.9388
60 2 24.6066 24.5987 25.1215
1 1 25.135 25.3241 25.2226
31 2 24.6181 26.1381 25.6369
2 2 26.0065 24.7722 25.4036
3 2 26.5308 24.6038 26.2469
4 2 27.5796 24.5487 25.9489
5 2 28.5362 25.3562 26.065
6 2 29.4753 25.4326 26.1886
7 2 30.3351 25.5495 26.3961
8 2 31.1447 26.1716 26.4186
9 2 32.0349 26.3665 26.1569
10 2 32.8269 26.8777 26.2377
32 2 23.7167 26.6468 25.4417
33 2 23.6115 27.623 25.397
34 2 23.0999 28.5131 25.4718
35 2 22.6465 29.3705 25.1722
36 2 22.2771 29.9952 25.9298
37 2 21.8025 30.839 25.6112
38 2 21.9099 31.4374 26.2864
51 2 21.0762 32.0988 26.865
83 2 20.5523 12.358 27.38
82 2 20.3294 13.1892 26.9588
74 2 17.2901 13.7589 27.4375
81 2 20.3802 14.1055 26.4431
72 2 18.0928 15.1334 26.8081
73 2 17.0855 14.724 26.7516
17 2 29.1372 26.7684 27.1701
15 2 30.5836 25.3207 27.4777
16 2 30.0987 26.1765 27.1942
14 2 31.2602 26.09 27.4611
12 2 32.758 26.6162 26.6374
13 2 32.1475 26.3711 27.4352
11 1 33.611 27.2264 26.6185
21 2 34.0599 27.8083 27.1929
22 2 34.6783 28.5893 26.901
23 2 34.847 29.5111 27.4634
54 2 21.8556 30.4998 27.5323
24 2 34.8758 30.5066 28.0498
52 2 21.2656 31.0863 27.3302
53 2 20.8932 30.3147 27.8478
25 2 34.2617 31.3202 28.2529
26 2 33.1751 31.5045 28.0678
39 2 21.3064 32.2918 26.0888
40 1 21.6911 33.3174 26.1635
27 2 32.3968 31.7522 27.4565
50 2 21.0592 33.0844 26.954
41 2 22.1576 34.1813 26.3562
42 2 23.0093 34.5084 26.5824
43 2 24.0318 34.8147 26.3906
44 2 25.0258 34.9992 26.6001
45 2 25.5202 34.711 27.448
46 2 26.4305 35.1272 27.8454
47 2 27.4522 34.8579 27.7039
48 2 28.2924 34.148 27.6469
87 2 19.1923 10.7462 28.8226
88 1 18.3054 11.0887 28.4731
86 2 19.972 10.9297 28.3171
84 2 21.107 12.1264 28.1287
85 2 20.7624 11.4006 28.7536
76 2 16.0325 12.441 28.4403
78 2 17.3977 11.1963 28.3287
77 2 16.9525 11.9092 28.8404
75 2 16.3681 13.4154 27.7744
18 2 28.4096 27.0033 27.9044
20 2 26.5642 27.1882 28.1027
59 1 25.7692 27.7379 28.3705
19 2 27.4895 27.3281 27.6758
56 2 23.3121 29.2913 27.5999
58 2 24.7846 28.0796 28.2052
57 2 23.9697 28.564 27.9913
55 2 22.3361 29.7276 27.4375
28 2 31.992 32.6618 27.5373
49 2 29.2737 34.152 27.7566
29 2 31.0304 32.8694 28.1244
30 1 30.2199 33.6305 27.6822
ITEM: TIMESTEP
2000
ITEM: NUMBER OF ATOMS
88
ITEM: BOX BOUNDS pp pp pp
0.0000000000000000e+00 5.0000000000000000e+01
0.0000000000000000e+00 5.0000000000000000e+01
0.0000000000000000e+00 5.0000000000000000e+01
ITEM: ATOMS id type x y z
61 2 23.9597 23.1997 25.9725
81 2 19.8945 14.503 27.0251
80 2 19.9173 15.1014 26.2487
79 2 20.5496 15.9741 26.1342
69 1 20.6488 16.5904 26.8017
68 2 21.4268 17.0192 26.3895
67 2 21.8809 18.0769 26.2613
66 2 21.7777 18.8758 25.5716
65 2 21.9469 19.9307 25.8558
63 2 22.621 21.9537 25.7433
64 2 22.4399 20.9987 25.7251
62 2 23.3795 22.4766 25.6022
60 2 24.332 24.238 25.8379
2 2 25.9552 25.2784 25.56
3 2 26.7001 24.6722 25.3939
4 2 27.4079 24.8608 25.9376
31 2 24.8023 26.0007 25.8913
1 1 24.9554 25.1722 25.4545
5 2 28.1875 25.0352 26.575
6 2 29.2344 25.2451 26.646
7 2 29.9138 25.7416 27.0475
8 2 30.9119 25.8581 26.9763
9 2 31.8473 25.7693 26.9793
32 2 23.8994 26.7346 25.8002
33 2 23.3674 27.5444 26.1629
10 2 32.6341 26.5144 27.0622
34 2 22.9002 28.4157 26.4224
35 2 22.4685 29.2505 26.0261
37 2 22.0006 31.216 25.1108
36 2 22.0541 30.1852 25.568
38 2 22.7854 31.8897 25.2121
39 2 22.6545 32.6165 25.9703
40 1 22.1761 33.5155 26.0701
41 2 23.0168 33.6992 25.8349
43 2 24.4137 34.2211 25.9583
83 2 20.4707 12.9731 26.553
82 2 20.2667 13.8899 26.2583
74 2 17.038 14.0474 26.8804
75 2 17.5429 13.1095 27.2783
73 2 17.9067 14.4611 26.6494
71 2 19.1627 15.9752 27.3153
72 2 18.5266 15.1449 27.1715
70 2 19.6213 16.7277 26.9766
15 2 30.06 26.6625 28.4101
16 2 29.1444 27.0929 28.3221
14 2 30.99 26.531 27.8823
13 2 31.887 26.5515 27.7864
19 2 26.9269 26.7916 27.8385
17 2 28.7579 26.3947 27.7274
12 2 32.3892 26.713 26.8437
11 1 32.941 27.5234 27.0387
21 2 34.0262 27.4371 27.2721
56 2 23.7615 29.1873 27.2156
57 2 24.7717 29.4197 27.1461
22 2 34.661 28.3916 27.4758
54 2 22.7428 29.8596 26.9703
53 2 22.224 30.5848 26.5729
55 2 23.1964 29.935 27.764
23 2 33.952 29.0436 27.5267
51 2 21.7487 32.2151 26.6918
52 2 22.3955 31.5353 26.2365
27 2 32.3291 32.1441 27.7313
50 2 22.5812 32.658 26.4795
30 1 30.2319 34.6023 27.9975
28 2 31.7701 33.1368 27.9165
42 2 23.882 33.555 25.4548
44 2 25.3208 34.2446 26.4494
45 2 25.6539 35.0168 27.0206
46 2 26.5756 34.9264 27.6584
47 2 27.4875 35.0576 27.9362
48 2 28.5181 35.1575 28.3794
49 2 29.486 35.123 27.7411
78 2 17.7643 11.515 28.1199
88 1 18.1185 10.8133 28.7042
87 2 19.0647 10.9938 28.3531
86 2 19.8489 11.2598 28.8098
85 2 20.0782 12.0273 28.16
76 2 17.7529 12.6792 27.9896
77 2 18.1332 12.1818 28.7658
84 2 20.6423 12.2863 27.4226
59 1 25.3415 27.7212 27.8488
20 2 25.9273 26.9024 27.8743
18 2 27.7794 26.5092 28.0896
58 2 25.2501 28.7411 27.6787
24 2 33.9252 29.9872 27.0781
26 2 33.0861 31.1872 27.6121
25 2 33.9559 30.6018 27.8602
29 2 31.0264 33.9636 27.6611
ITEM: TIMESTEP
3000
ITEM: NUMBER OF ATOMS
88
ITEM: BOX BOUNDS pp pp pp
0.0000000000000000e+00 5.0000000000000000e+01
0.0000000000000000e+00 5.0000000000000000e+01
0.0000000000000000e+00 5.0000000000000000e+01
ITEM: ATOMS id type x y z
82 2 20.0099 14.1306 26.7402
80 2 20.0877 15.9785 26.3731
79 2 20.3888 16.8882 25.9716
68 2 21.1782 18.1424 26.7535
67 2 21.3956 18.7579 26.0494
66 2 21.8755 19.4753 25.5065
65 2 22.0519 20.4698 25.5968
63 2 22.9555 22.1921 25.4429
64 2 22.4125 21.2835 25.1463
62 2 23.5184 22.947 25.2668
61 2 23.9603 23.9991 25.2073
60 2 24.4331 24.9106 25.3957
3 2 26.8375 24.9789 25.7644
4 2 27.7715 24.9043 26.0545
31 2 25.4067 26.3285 25.5793
1 1 25.2218 25.3903 25.8438
2 2 26.1178 25.6321 25.4926
33 2 24.0744 27.6166 25.6972
32 2 24.9315 27.1689 25.7946
34 2 23.547 28.5401 25.6967
35 2 22.9238 29.1623 25.3959
36 2 22.0255 29.5891 25.4338
37 2 22.742 30.3224 25.3326
38 2 22.6693 31.1493 24.59
52 2 23.0483 31.503 25.993
39 2 22.7567 32.0712 25.0491
40 1 22.6397 32.649 25.7849
41 2 23.4612 33.3274 25.7099
42 2 24.0372 34.1112 26.0823
43 2 24.9881 33.8985 25.9291
44 2 25.4899 34.3774 26.6362
75 2 17.5445 13.7048 27.4472
83 2 19.8299 13.4112 27.3462
84 2 20.0691 12.4549 27.4442
74 2 17.6156 14.5313 26.7457
73 2 18.267 15.2882 26.5593
81 2 19.8706 14.9688 26.3119
72 2 19.0772 14.8683 27.1974
71 2 19.1464 15.8999 26.9808
70 2 19.652 16.7064 27.0276
69 1 20.3521 17.4796 26.8025
5 2 28.7368 25.0598 25.8342
6 2 29.687 25.3925 26.221
17 2 27.8418 26.8221 28.0025
7 2 30.3546 25.3476 26.9845
8 2 31.1147 25.6705 27.3593
9 2 31.9727 25.7186 26.7709
59 1 25.5473 27.173 27.1983
20 2 26.1873 27.5202 28.0085
19 2 27.2425 27.0771 27.7226
14 2 29.6562 26.5831 27.2284
13 2 30.5435 26.5221 27.6469
10 2 31.7691 26.7556 26.5407
12 2 31.5274 26.677 27.1918
11 1 31.6662 27.6945 27.1263
21 2 32.5069 27.8704 26.4576
56 2 24.5681 28.7318 27.2601
57 2 25.1787 28.1432 26.8979
58 2 25.5654 27.8734 27.836
22 2 33.3461 28.0612 26.5087
23 2 33.484 29.0569 26.7546
54 2 23.6453 29.7609 26.1
53 2 23.8097 30.7918 26.2484
55 2 24.0082 29.2139 26.7647
24 2 34.0285 29.8862 26.8482
25 2 33.1988 30.2017 26.8867
51 2 22.6958 31.6543 26.9339
27 2 32.4457 31.8077 27.7567
26 2 32.9552 31.241 26.9381
50 2 23.0205 31.801 26.0037
28 2 31.5177 32.1587 27.9288
45 2 26.3168 34.9353 26.8779
46 2 27.268 34.799 27.3858
47 2 27.7328 34.7489 28.2409
49 2 29.3945 34.0026 29.0295
29 2 31.1105 33.1178 28.4194
78 2 19.0529 11.2595 27.7936
88 1 18.634 11.3107 28.7607
87 2 19.8342 11.2937 28.5115
86 2 19.7786 11.9979 27.7701
76 2 17.8198 12.9248 27.682
77 2 18.2879 11.9532 27.837
85 2 19.4482 11.9583 26.9113
18 2 27.9342 27.1402 27.1276
16 2 28.2623 26.2517 27.2289
15 2 29.1102 25.596 27.3403
48 2 28.6225 34.5995 28.7084
30 1 30.3658 33.6179 28.7269
ITEM: TIMESTEP
4000
ITEM: NUMBER OF ATOMS
88
ITEM: BOX BOUNDS pp pp pp
0.0000000000000000e+00 5.0000000000000000e+01
0.0000000000000000e+00 5.0000000000000000e+01
0.0000000000000000e+00 5.0000000000000000e+01
ITEM: ATOMS id type x y z
38 2 22.0774 31.1624 26.0092
80 2 19.3205 16.3226 26.4501
81 2 19.072 15.6021 25.9097
79 2 20.0271 16.7575 26.8315
67 2 20.886 19.0211 25.5809
66 2 21.0374 19.9172 25.5848
65 2 21.8917 20.4591 25.248
64 2 22.0726 21.5372 25.5061
63 2 22.4344 22.5825 25.5569
62 2 22.974 23.5207 25.5002
61 2 23.3863 24.5482 25.4854
60 2 24.1459 25.125 25.8531
3 2 26.554 25.8055 26.1112
4 2 27.5429 25.7407 25.8842
31 2 24.7107 26.5372 26.1424
1 1 25.0126 25.4787 26.1762
2 2 25.9826 25.0895 26.1761
5 2 28.4752 25.8312 25.675
6 2 29.1456 25.9189 26.4071
33 2 24.5432 27.4248 25.7646
32 2 24.4147 26.6303 25.1209
21 2 32.0505 28.029 26.8657
35 2 23.4244 28.6369 25.2986
34 2 24.3961 28.4729 25.6275
36 2 23.4495 29.6745 25.2516
37 2 23.0118 30.4105 25.9428
54 2 24.9454 30.0323 26.1896
53 2 24.0295 30.3892 26.5094
52 2 24.4743 31.1969 26.7386
39 2 22.4212 32.0738 25.5688
50 2 23.1947 32.647 26.4836
40 1 23.3196 32.5061 25.5105
41 2 23.5832 32.447 26.5413
42 2 24.4119 32.8955 26.9815
43 2 25.136 33.6064 26.7886
78 2 19.9072 11.4621 27.5175
76 2 18.7358 12.8917 27.7072
77 2 19.3107 12.2907 27.051
84 2 20.2751 14.2782 27.9745
86 2 19.5537 12.7054 28.4412
85 2 20.063 13.3121 27.8584
75 2 18.1889 13.5977 27.6863
74 2 18.3478 14.496 26.9944
82 2 19.9074 15.0763 26.2471
83 2 19.6459 14.3099 27.0156
73 2 19.0124 15.2474 27.0586
72 2 19.8003 15.6669 27.4242
71 2 19.5288 16.6901 27.4272
70 2 20.2673 16.7731 26.6931
69 1 20.4018 17.1565 25.8749
68 2 20.3558 18.2359 26.0818
16 2 29.2177 26.7735 26.9805
15 2 30.1376 27.0316 27.1095
7 2 30.1226 26.0329 26.6408
8 2 30.8657 25.6639 27.2203
9 2 31.7913 25.6313 26.8395
59 1 26.2457 27.4033 27.887
58 2 26.0325 27.6489 26.9393
19 2 28.1468 27.1511 27.5645
18 2 28.2042 28.2078 27.8276
14 2 31.098 26.7659 26.5203
13 2 31.1255 27.6692 27.0444
10 2 31.8141 26.4808 27.4494
12 2 31.8256 27.5585 26.4164
11 1 32.4112 27.0998 27.0152
56 2 24.5366 28.6837 26.8359
55 2 24.2047 29.4161 26.307
57 2 25.4838 28.5934 27.0578
22 2 32.5248 28.9209 26.4039
23 2 33.542 29.0176 26.5149
25 2 33.3652 30.6348 26.4684
24 2 34.0321 29.7828 26.0765
51 2 23.7425 31.8634 26.6493
28 2 31.6743 32.7142 27.4544
27 2 31.839 32.0727 26.6205
26 2 32.7243 31.4803 26.5335
44 2 25.8163 34.2699 26.3269
45 2 26.1697 34.1666 27.3459
46 2 26.8459 34.4017 27.9853
88 1 20.1814 11.4177 28.662
87 2 19.7819 11.9911 27.7466
20 2 27.1912 27.3492 27.991
17 2 28.6118 27.3146 27.6547
30 1 30.2459 33.0306 28.7957
29 2 30.7637 33.0617 27.8245
47 2 27.7205 34.459 28.4526
49 2 29.4103 33.631 28.615
48 2 28.5397 33.7576 28.259
ITEM: TIMESTEP
5000
ITEM: NUMBER OF ATOMS
88
ITEM: BOX BOUNDS pp pp pp
0.0000000000000000e+00 5.0000000000000000e+01
0.0000000000000000e+00 5.0000000000000000e+01
0.0000000000000000e+00 5.0000000000000000e+01
ITEM: ATOMS id type x y z
81 2 19.5584 15.835 25.9994
82 2 20.0681 15.0539 26.2683
80 2 19.2103 16.4177 26.7136
69 1 20.5671 17.4115 26.0286
68 2 21.0387 18.319 25.9179
67 2 21.6133 19.0718 26.3754
66 2 21.7697 19.8546 25.9152
65 2 21.9568 20.658 26.4593
64 2 22.5551 21.4544 25.9594
63 2 22.5886 22.3965 26.0165
62 2 23.3146 23.0868 26.1123
61 2 23.992 23.9082 26.0431
60 2 24.4816 24.8315 25.9388
1 1 25.3085 25.2804 26.0083
2 2 25.5301 26.2381 26.1821
3 2 26.3747 26.578 26.2749
4 2 27.4005 26.67 26.5484
5 2 28.3299 26.3331 26.9136
6 2 29.1319 26.3181 27.5986
31 2 25.0551 26.2272 26.2403
33 2 24.7813 28.0941 26.1274
32 2 25.0019 27.229 26.3428
12 2 31.719 26.4104 26.7029
35 2 23.2878 29.2243 25.8629
34 2 23.9495 28.5338 25.8635
55 2 24.059 30.0527 26.8222
22 2 32.4932 28.3967 26.8821
36 2 23.2977 30.0481 25.2808
37 2 23.2283 31.1937 25.4596
54 2 24.2048 29.8904 25.7879
25 2 31.8964 30.0077 26.1232
24 2 32.5371 29.318 26.7009
38 2 24.2113 30.9948 25.404
39 2 23.4428 31.5772 25.4685
40 1 23.5502 32.673 25.6796
44 2 26.3702 33.5734 27.9175
78 2 18.6394 12.7195 27.8362
76 2 18.9359 13.0211 28.0859
77 2 19.4955 12.2786 27.7104
87 2 20.2747 12.7575 28.382
75 2 18.4797 13.7165 27.4572
74 2 18.7637 14.773 27.2553
85 2 19.4532 13.462 27.1507
83 2 20.3811 14.3319 27.0453
73 2 19.7 15.2765 27.2582
72 2 20.0492 16.1166 27.3276
79 2 19.63 17.3052 26.4693
71 2 20.3995 16.3702 26.495
70 2 19.8419 17.1203 26.8198
7 2 29.9312 25.695 27.4
8 2 30.7689 25.5587 27.0023
9 2 31.5833 26.1754 26.8511
10 2 31.749 27.0573 26.5232
59 1 26.8928 27.8449 27.0517
58 2 26.1082 28.5824 26.9748
16 2 29.4912 27.1296 28.1631
19 2 27.9611 26.7119 27.8871
17 2 28.5777 27.1884 27.9552
15 2 29.7074 27.9072 27.7773
14 2 30.4257 27.111 27.7747
13 2 31.2775 27.0833 27.3213
11 1 32.4681 26.7432 25.9634
56 2 24.2328 29.2056 27.4457
57 2 25.0058 28.402 27.331
18 2 28.7672 26.4182 28.5334
21 2 32.8794 27.7182 26.1333
23 2 33.017 29.023 27.5555
53 2 24.2594 30.669 26.3811
52 2 23.6927 31.4704 26.6302
51 2 24.0582 32.1914 25.9771
27 2 31.4914 31.0234 27.5127
26 2 32.037 30.2454 27.1464
50 2 24.0196 33.1853 26.3048
41 2 23.742 33.1928 26.5945
42 2 24.5823 32.9955 27.1636
43 2 25.3777 33.5986 27.6575
29 2 29.9675 31.7881 27.9811
28 2 30.5743 31.4059 27.2163
45 2 27.4108 33.7893 27.8467
88 1 19.2673 12.463 28.7126
86 2 19.9278 13.5163 28.0186
84 2 19.6626 14.1767 27.812
20 2 27.7629 27.514 27.4405
49 2 29.5176 33.2862 28.8327
48 2 29.1895 34.1943 28.9856
30 1 30.1873 32.5205 28.5218
46 2 27.3456 34.7039 28.392
47 2 28.2214 34.5243 28.8938
ITEM: TIMESTEP
6000
ITEM: NUMBER OF ATOMS
88
ITEM: BOX BOUNDS pp pp pp
0.0000000000000000e+00 5.0000000000000000e+01
0.0000000000000000e+00 5.0000000000000000e+01
0.0000000000000000e+00 5.0000000000000000e+01
ITEM: ATOMS id type x y z
81 2 19.7564 16.0784 25.8012
82 2 20.1251 15.1589 25.9434
69 1 20.373 17.6161 26.774
68 2 20.6193 18.2569 25.9456
67 2 20.7469 19.1059 25.6235
66 2 21.2684 20.1023 25.5618
65 2 21.9165 20.9039 25.6357
64 2 21.8543 21.6591 26.1037
63 2 22.3984 22.5323 26.3016
62 2 22.903 23.3927 26.2076
61 2 23.0739 24.27 26.6542
60 2 23.8214 24.9456 26.3914
1 1 24.3603 25.8932 26.221
2 2 25.2339 26.0192 26.6156
31 2 23.9425 27.0012 26.2319
32 2 24.7642 27.7086 25.9577
3 2 26.1578 25.9333 26.8897
11 1 32.2595 27.1465 26.7626
21 2 31.6 27.8158 27.026
35 2 23.7508 29.8526 26.2458
33 2 24.7031 28.5612 26.3097
34 2 24.2225 29.0535 25.5557
36 2 22.8957 29.6307 25.4341
54 2 23.5475 30.4931 27.0417
53 2 24.1108 30.9914 26.3527
25 2 31.7978 29.5108 27.0028
37 2 23.3435 30.4587 25.8127
39 2 24.1641 32.0273 25.6882
38 2 23.5841 31.2815 25.4741
51 2 24.0431 32.6738 25.9601
40 1 23.5628 32.8555 26.0279
50 2 24.2286 33.6435 26.3262
78 2 19.6906 13.0176 28.0332
77 2 19.7095 12.9355 27.0969
75 2 18.4967 14.2006 28.2043
74 2 19.4494 13.9928 28.2042
85 2 20.2777 14.141 25.8891
83 2 19.4371 15.3684 26.6422
84 2 19.3961 14.4534 26.2872
73 2 20.0974 14.8024 27.957
72 2 19.5683 15.6858 27.8269
80 2 18.9521 16.3703 26.1916
79 2 19.5431 16.9401 26.8433
71 2 18.946 16.5198 27.6272
70 2 19.7139 16.9679 26.9601
5 2 27.7718 27.1199 27.1955
6 2 28.744 27.1148 27.3338
7 2 29.6419 26.6197 26.9776
8 2 30.2171 26.4017 27.7805
12 2 31.7894 27.0935 27.6665
9 2 31.2455 26.4197 27.7823
4 2 27.1381 26.298 27.1371
59 1 26.2015 27.527 27.6899
20 2 26.5881 26.8511 28.0141
19 2 27.3019 26.9246 28.8429
17 2 28.1303 26.1826 27.7562
15 2 29.6218 27.2631 27.9071
14 2 30.5031 27.7005 27.6196
10 2 31.6042 27.2826 27.4092
13 2 31.2468 27.9127 27.2035
56 2 23.9604 28.6216 27.2867
58 2 25.5086 27.5813 27.0625
57 2 24.5387 27.8668 27.1197
22 2 31.7833 28.8215 26.8604
24 2 32.1132 28.739 27.2936
23 2 32.1438 27.8195 26.7292
55 2 23.3509 29.4245 27.0138
26 2 31.7061 30.3595 27.6734
52 2 23.8361 31.9168 26.679
28 2 30.0569 31.0114 28.384
27 2 30.7932 30.3781 28.099
41 2 24.4462 33.2096 26.1986
42 2 24.4446 33.719 27.1381
44 2 25.8755 34.6704 28.149
43 2 25.2931 33.8579 27.7065
45 2 26.3256 34.0889 27.6475
76 2 18.9407 13.3742 27.7245
87 2 20.5162 13.9058 27.7812
88 1 20.3464 13.5412 28.6914
86 2 20.6214 13.702 26.7405
18 2 27.9594 26.039 28.824
16 2 28.973 26.6268 28.2539
29 2 29.7779 31.9012 28.6376
49 2 28.7207 33.3621 28.9664
30 1 29.4239 32.8554 28.4489
46 2 27.1611 33.6542 28.0425
48 2 27.9803 32.7698 28.4885
47 2 27.7695 33.6538 28.9787
ITEM: TIMESTEP
7000
ITEM: NUMBER OF ATOMS
88
ITEM: BOX BOUNDS pp pp pp
0.0000000000000000e+00 5.0000000000000000e+01
0.0000000000000000e+00 5.0000000000000000e+01
0.0000000000000000e+00 5.0000000000000000e+01
ITEM: ATOMS id type x y z
85 2 20.3775 14.328 26.3257
84 2 19.6084 15.018 26.3643
81 2 19.3741 15.6354 26.69
82 2 20.3814 15.8716 26.8974
80 2 19.1423 16.1476 25.8516
68 2 19.7988 18.6064 26.1232
67 2 20.5227 19.1594 26.4884
66 2 21.068 19.9376 26.1122
65 2 21.4158 21.0614 26.0378
64 2 22.0888 21.7403 26.4819
63 2 22.9591 22.4757 26.6547
62 2 22.926 23.5473 26.7529
60 2 23.9708 25.1375 26.1572
1 1 24.9532 25.1362 26.7379
31 2 24.0549 25.6276 26.4931
32 2 24.0551 26.6979 26.6924
33 2 23.7268 27.8118 26.4376
34 2 23.8042 28.9471 26.314
36 2 22.8535 29.9856 25.7213
37 2 22.6517 30.6199 24.8445
35 2 23.7132 29.946 26.1361
38 2 22.8472 31.2613 25.3435
53 2 24.1404 30.987 26.9709
39 2 23.738 31.8881 25.4818
51 2 24.5803 32.4814 26.765
40 1 24.1064 31.9573 26.2595
50 2 23.9306 32.9112 25.9713
41 2 23.4876 32.4752 26.8988
77 2 18.8189 14.1828 27.5008
76 2 18.6853 14.996 27.1612
87 2 20.2859 13.1086 26.8599
86 2 20.931 13.5891 26.7266
83 2 19.4621 16.0632 26.436
72 2 18.9299 16.091 27.623
71 2 19.2433 17.0721 27.226
79 2 19.4287 16.9994 26.1525
70 2 19.6214 17.66 27.5729
69 1 19.9745 17.6653 26.5369
61 2 23.4338 24.4651 26.5876
2 2 25.284 25.6848 26.2911
3 2 25.6182 25.9972 27.2504
4 2 26.5956 25.8122 27.488
17 2 28.767 27.3649 28.8388
8 2 29.6854 27.1871 27.2546
9 2 30.5058 27.4813 26.5621
57 2 24.5335 29.1829 27.4026
59 1 25.3241 27.5394 27.9078
58 2 24.6927 28.236 27.1876
5 2 27.2967 26.2749 26.9691
6 2 27.7322 27.3448 27.2343
7 2 28.7863 27.5064 27.2885
15 2 29.6209 28.4341 27.6949
14 2 30.2302 28.5678 28.1277
11 1 31.9469 28.671 26.4739
21 2 31.9798 29.3435 25.8814
12 2 31.5767 28.4525 27.3757
10 2 31.3083 27.9926 26.8503
13 2 30.9976 29.0834 27.8952
23 2 32.2592 27.7392 26.0706
55 2 23.3977 30.073 27.6679
56 2 24.3567 30.0825 27.2663
22 2 31.8881 28.6331 26.4091
24 2 32.8347 27.9658 26.7004
54 2 23.4395 31.0601 27.7024
25 2 32.6867 28.4499 27.4102
26 2 32.1556 29.1708 27.8165
52 2 24.3258 31.9429 27.5645
42 2 23.9499 32.9428 27.6898
43 2 24.1825 33.7856 27.9755
45 2 26.1334 33.6172 28.1072
78 2 19.43 14.3175 28.1271
75 2 18.2555 15.7728 27.1096
74 2 18.8514 15.4158 27.876
88 1 20.0602 13.9053 27.4266
73 2 19.8066 15.4508 27.7529
18 2 27.8986 27.032 28.7174
20 2 26.1744 26.8787 27.9273
19 2 27.1081 26.652 28.0336
16 2 29.6023 27.7513 28.3903
27 2 31.7657 30.0833 27.8816
28 2 31.1323 30.8312 27.98
29 2 30.4554 31.5668 28.1177
46 2 26.3196 32.8478 27.6328
47 2 27.1585 32.7843 28.3553
49 2 29.0454 32.378 27.8787
48 2 28.1067 32.8102 28.1493
30 1 29.8517 32.1576 28.0318
44 2 25.2136 33.8815 28.1835
ITEM: TIMESTEP
8000
ITEM: NUMBER OF ATOMS
88
ITEM: BOX BOUNDS pp pp pp
0.0000000000000000e+00 5.0000000000000000e+01
0.0000000000000000e+00 5.0000000000000000e+01
0.0000000000000000e+00 5.0000000000000000e+01
ITEM: ATOMS id type x y z
37 2 22.7077 30.6953 25.4811
85 2 20.4521 14.8775 26.1427
84 2 20.265 15.435 27.0349
80 2 20.0416 16.1215 26.2612
83 2 19.9111 15.9881 26.466
79 2 20.0729 17.0878 26.6134
68 2 20.8611 18.6665 26.6438
67 2 21.2811 19.5691 26.5613
66 2 21.2757 20.1336 27.2998
65 2 21.4064 21.2254 27.4697
64 2 21.2906 21.8967 26.8011
60 2 23.6738 24.5077 26.9626
2 2 24.6653 26.1069 26.844
33 2 24.0319 27.5435 26.6812
23 2 32.6793 27.6635 27.7824
34 2 23.3095 28.3073 26.2409
36 2 22.9274 29.7832 25.6233
35 2 23.059 29.3089 26.4353
21 2 31.4745 28.4948 26.6077
38 2 23.3272 31.371 25.2051
39 2 24.1611 31.7 25.2612
40 1 23.4911 32.0992 25.8567
50 2 24.1311 32.2284 26.7742
87 2 19.8727 13.5877 27.3452
77 2 19.2127 15.8687 28.1059
88 1 19.6179 14.3766 27.979
86 2 19.9827 13.9202 26.4087
76 2 19.0107 15.4563 27.1286
75 2 18.8138 15.5694 28.0884
74 2 19.1717 16.2523 27.4011
81 2 20.0099 15.4299 27.1161
82 2 20.866 15.9523 26.6915
73 2 20.0157 16.5255 27.509
72 2 19.1473 16.6091 26.992
71 2 18.9677 17.2263 27.7637
69 1 20.3368 17.932 26.8635
70 2 19.9657 17.0948 27.5219
63 2 21.9198 22.7082 26.6882
62 2 22.1836 23.5822 26.6784
61 2 22.5789 24.4481 26.6955
1 1 24.0799 25.3183 26.6619
31 2 24.5344 26.0403 26.2477
3 2 25.461 26.2977 26.2509
4 2 26.3883 26.7472 26.4747
5 2 26.9946 27.232 26.9798
32 2 24.5469 27.0687 26.0501
59 1 25.5139 27.4031 28.4097
20 2 26.4667 27.152 28.5659
6 2 28.0086 27.2203 27.0219
7 2 28.8483 27.2518 27.377
8 2 29.7461 27.694 27.3879
9 2 30.7978 27.645 27.1875
57 2 24.4738 28.343 27.2992
58 2 25.2466 27.7254 27.6037
15 2 30.0627 28.5638 28.0845
11 1 32.3804 28.1474 26.7195
12 2 31.6053 28.323 27.4283
10 2 31.4489 28.3043 26.8942
22 2 31.7061 28.0507 27.5178
26 2 32.2338 29.6969 27.6806
24 2 33.3517 28.1549 27.5777
25 2 32.658 28.7975 27.6916
55 2 23.6289 30.0839 27.0329
56 2 23.9167 29.2068 27.2662
27 2 31.5392 30.2733 27.4432
54 2 23.441 30.9545 27.2366
53 2 23.3905 31.0839 26.4197
52 2 23.7903 30.4597 25.92
41 2 24.0449 32.2959 26.5806
51 2 24.0971 31.3323 26.3924
42 2 24.3056 32.8579 27.3218
46 2 27.0059 32.8011 27.7825
49 2 29.066 32.6321 27.6365
78 2 18.8833 15.0634 27.5793
18 2 27.9474 27.204 28.878
19 2 27.4306 27.0568 28.1553
17 2 28.0891 27.964 28.2108
16 2 29.0703 28.2387 28.0853
14 2 30.8047 27.8834 28.2427
13 2 31.097 28.7428 28.054
29 2 30.2493 31.504 26.9197
30 1 29.9436 32.0853 27.6706
28 2 30.6854 30.8126 27.685
43 2 24.648 33.2805 28.1234
45 2 26.0523 32.9334 27.4522
47 2 27.5522 33.628 27.7108
48 2 28.2732 33.1433 28.1084
44 2 25.2097 33.1902 27.2676
ITEM: TIMESTEP
9000
ITEM: NUMBER OF ATOMS
88
ITEM: BOX BOUNDS pp pp pp
0.0000000000000000e+00 5.0000000000000000e+01
0.0000000000000000e+00 5.0000000000000000e+01
0.0000000000000000e+00 5.0000000000000000e+01
ITEM: ATOMS id type x y z
86 2 20.639 14.5066 26.5921
85 2 20.1514 15.2938 26.9203
80 2 19.437 17.0678 26.4174
83 2 19.7538 16.5585 26.6219
31 2 23.862 26.896 26.5512
3 2 25.3054 26.9796 27.365
32 2 24.83 27.4159 26.3316
34 2 24.1482 28.8339 26.6374
35 2 23.5438 29.6265 26.5488
37 2 24.3058 30.7532 25.3979
36 2 24.3362 29.8816 26.1186
52 2 25.0228 31.4471 25.8321
38 2 24.3248 31.0293 24.5425
40 1 23.9626 31.1528 25.2974
53 2 24.7218 30.909 26.574
39 2 24.4728 31.94 24.8636
51 2 24.3209 31.8483 25.2935
87 2 20.0036 14.8254 27.3909
76 2 19.1538 16.7367 27.5722
78 2 19.0313 14.9533 27.5722
84 2 20.5435 16.1638 26.5166
81 2 19.5301 16.1373 25.9821
82 2 20.045 15.6496 26.717
71 2 19.0431 17.7158 27.6258
79 2 20.0193 17.343 27.2131
74 2 19.5429 16.8172 28.2243
73 2 20.6076 16.8411 28.2669
72 2 19.7014 17.3413 28.2898
70 2 19.8399 18.2979 27.516
69 1 20.3971 18.1735 26.5971
68 2 20.7625 18.7303 25.8471
67 2 21.0608 19.5123 26.4888
66 2 21.6345 20.0826 25.9107
65 2 22.1873 21.0476 25.9085
64 2 22.1406 21.8891 26.5529
63 2 22.3568 22.6431 27.2091
62 2 22.9239 23.1829 26.5997
61 2 23.3202 23.9972 27.1686
60 2 23.6744 24.9056 27.3262
2 2 24.9954 26.1011 27.0501
1 1 23.9735 25.8367 26.8606
33 2 24.4527 27.9936 26.9934
4 2 26.2023 27.2858 27.2308
58 2 25.5803 28.8871 27.5465
5 2 27.0773 27.4186 27.7951
6 2 28.0429 27.3884 27.3529
7 2 28.4468 28.1033 26.7603
8 2 29.4656 27.6375 26.7802
9 2 30.2601 27.6493 27.3803
23 2 33.0575 28.4521 28.3787
57 2 25.8114 29.6225 27.2392
56 2 24.7485 29.8157 27.1315
21 2 31.5824 28.0083 27.6293
12 2 31.1199 28.3622 27.2367
10 2 31.227 27.8823 27.245
22 2 32.5882 28.0311 27.6548
11 1 31.9257 28.4106 26.715
24 2 33.1159 28.2881 27.228
25 2 32.4113 28.759 27.5907
55 2 23.8866 30.4315 27.2217
28 2 30.4561 31.129 27.607
26 2 31.564 29.2869 27.55
27 2 30.6819 29.9525 27.7524
54 2 23.7208 30.7074 26.2634
50 2 23.6369 31.8408 26.035
41 2 23.5828 31.8025 25.927
29 2 29.6144 31.607 27.5807
30 1 29.1264 32.399 27.8807
42 2 24.2843 32.5483 26.3033
45 2 26.2999 34.1788 26.8286
44 2 25.7222 33.575 27.4256
46 2 26.5265 33.45 27.401
47 2 27.435 33.5537 27.2927
49 2 28.9567 33.2432 28.3493
88 1 19.7024 14.2626 28.0742
75 2 19.6835 15.8994 27.8098
77 2 19.4222 15.8641 27.9031
59 1 25.4833 28.0654 28.1072
20 2 26.3543 27.6864 28.4815
19 2 27.3369 27.7192 28.8105
18 2 28.3669 27.615 28.5255
14 2 30.9945 28.62 28.1606
17 2 28.9447 28.2071 28.1507
16 2 29.462 28.7334 27.4916
15 2 30.1186 28.4368 28.0586
13 2 31.516 27.7545 28.003
43 2 25.0985 32.986 26.8181
48 2 28.1224 33.735 28.0544
ITEM: TIMESTEP
10000
ITEM: NUMBER OF ATOMS
88
ITEM: BOX BOUNDS pp pp pp
0.0000000000000000e+00 5.0000000000000000e+01
0.0000000000000000e+00 5.0000000000000000e+01
0.0000000000000000e+00 5.0000000000000000e+01
ITEM: ATOMS id type x y z
38 2 23.5678 31.8123 25.8943
39 2 23.5891 31.9005 24.8949
81 2 20.0214 15.7231 26.7277
80 2 19.4731 16.6716 26.2623
68 2 19.9511 18.8347 26.0204
67 2 20.1576 19.8406 26.3544
66 2 20.7738 20.6708 26.2008
65 2 21.6251 21.3342 26.224
32 2 23.6699 27.4789 27.0985
37 2 23.9978 30.927 25.5067
36 2 23.7698 30.1021 26.0028
54 2 23.9698 30.9681 26.5731
40 1 23.8159 31.0638 25.5767
51 2 25.1646 31.3953 26.5168
50 2 24.6134 31.6685 25.8246
41 2 24.2242 31.8853 26.0624
52 2 24.4568 31.1152 26.8325
42 2 23.8702 32.0547 27.0417
86 2 19.7341 14.4641 27.6803
78 2 19.74 16.4575 28.4454
85 2 19.3064 15.4392 27.7446
87 2 20.4989 14.8873 27.2789
84 2 19.8973 14.9992 26.8945
82 2 19.6473 15.779 25.8433
75 2 19.6395 16.4538 27.6161
77 2 19.4196 16.8909 27.6682
83 2 19.4779 15.7226 26.8337
76 2 18.76 16.431 27.0718
79 2 19.9704 17.2993 26.6241
71 2 19.571 17.6076 27.0254
70 2 19.8939 18.2023 27.7677
69 1 19.7565 18.3427 26.6654
64 2 22.0286 22.0209 25.6019
63 2 22.4213 22.7189 26.0967
62 2 22.7641 23.7017 26.158
61 2 22.9654 24.4514 26.9175
60 2 23.5053 25.3104 26.9769
2 2 24.9977 25.9306 26.8888
1 1 24.1384 25.8022 27.6373
31 2 23.6605 26.6979 27.5512
3 2 25.86 26.4372 27.2556
4 2 26.1425 27.4283 27.0191
5 2 27.0054 28.0153 27.1285
6 2 27.7359 28.5831 26.9257
8 2 29.607 27.9454 27.2629
9 2 30.3867 27.9283 26.6957
10 2 30.6631 28.0161 27.7322
34 2 24.4899 29.3044 27.2196
33 2 24.0263 28.4183 26.9232
58 2 25.5302 28.6383 26.954
7 2 28.6573 28.4516 27.2628
16 2 29.8943 28.7498 28.243
21 2 30.8325 28.0037 27.7212
12 2 31.0733 28.2497 27.3997
11 1 30.8143 27.5271 26.8497
26 2 30.9374 29.0055 28.3099
22 2 31.705 28.3484 27.8263
24 2 32.226 28.6634 27.2635
25 2 31.9121 28.507 28.1519
35 2 23.6811 29.8037 27.0181
56 2 25.1438 30.2298 26.8823
55 2 24.732 30.4209 26.1311
57 2 25.4885 29.4547 26.4491
27 2 31.4496 29.7154 27.8473
53 2 24.0304 30.6718 27.593
28 2 30.5669 30.1568 27.9411
29 2 30.7292 31.2534 28.0667
44 2 25.7325 32.8679 26.9392
43 2 24.8957 32.3615 26.8788
46 2 27.4469 33.4275 27.4262
47 2 27.729 33.4685 28.3609
30 1 30.2874 32.0443 27.9493
45 2 26.5994 33.0765 27.1677
88 1 20.0234 15.5334 27.9952
74 2 19.4806 17.3179 27.7958
72 2 19.8686 17.7507 28.1508
73 2 20.4796 17.564 27.5427
20 2 26.2709 28.8862 28.6527
19 2 27.03 28.1128 28.7745
18 2 27.9204 28.3235 28.6067
13 2 30.4012 28.193 28.1382