ITEM: TIMESTEP
0
ITEM: NUMBER OF ATOMS
91
ITEM: BOX BOUNDS pp pp pp
0.0000000000000000e+00 5.0000000000000000e+01
0.0000000000000000e+00 5.0000000000000000e+01
0.0000000000000000e+00 5.0000000000000000e+01
ITEM: ATOMS id type x y z
71 1 20.0426 16.4135 26.2954
70 2 20.5326 17.2622 26.0964
68 2 21.5167 18.9667 25.7415
69 2 21.0237 18.1129 25.9092
67 2 22.0111 19.8231 25.5926
65 2 23.0035 21.542 25.3475
66 2 22.5067 20.6814 25.46
64 2 23.5015 22.4045 25.2579
63 2 24.0004 23.2687 25.1921
62 2 24.5 24.134 25.1529
11 1 34.9149 25 26.2954
1 1 25 25 25.1429
32 2 24.5 25.866 25.1529
2 2 26 25 25.1529
3 2 26.9992 25 25.1921
4 2 27.997 25 25.2579
5 2 28.993 25 25.3475
6 2 29.9867 25 25.46
7 2 30.9778 25 25.5926
8 2 31.9667 25 25.7415
9 2 32.9525 25 25.9092
10 2 33.9348 25 26.0964
34 2 23.5015 27.5955 25.2579
33 2 24.0004 26.7313 25.1921
35 2 23.0035 28.458 25.3475
36 2 22.5067 29.3186 25.46
37 2 22.0111 30.1769 25.5926
38 2 21.5167 31.0333 25.7415
39 2 21.0237 31.8871 25.9092
40 2 20.5326 32.7378 26.0964
41 1 20.0426 33.5865 26.2954
87 2 22.0483 11.0134 27.7224
86 2 21.5671 11.8298 27.4033
85 2 21.1062 12.6738 27.1289
83 2 20.3942 14.482 26.6687
84 2 20.7024 13.5558 26.8859
77 2 14.3631 15.4504 27.7224
76 2 15.3107 15.442 27.4033
74 2 17.2378 15.556 26.8859
75 2 16.2721 15.4647 27.1289
73 2 18.194 15.7523 26.6687
72 2 19.1295 16.0462 26.4725
82 2 20.1811 15.4391 26.4725
17 2 38.5887 20.5629 27.7224
16 2 38.1221 21.3879 27.4033
14 2 37.0598 22.9997 26.8859
15 2 37.6217 22.209 27.1289
12 2 35.6894 24.3928 26.4725
13 2 36.4118 23.7297 26.6687
22 2 35.6894 25.6072 26.4725
23 2 36.4118 26.2703 26.6687
24 2 37.0598 27.0003 26.8859
25 2 37.6217 27.791 27.1289
26 2 38.1221 28.6121 27.4033
27 2 38.5887 29.4371 27.7224
57 2 14.3631 34.5496 27.7224
56 2 15.3107 34.558 27.4033
54 2 17.2378 34.444 26.8859
55 2 16.2721 34.5353 27.1289
53 2 18.194 34.2477 26.6687
52 2 19.1295 33.9538 26.4725
42 2 20.1811 34.5609 26.4725
43 2 20.3942 35.518 26.6687
44 2 20.7024 36.4442 26.8859
45 2 21.1062 37.3262 27.1289
46 2 21.5671 38.1702 27.4033
47 2 22.0483 38.9866 27.7224
90 2 23.4381 8.65189 28.9404
91 1 23.886 7.87686 29.3861
89 2 22.9864 9.42963 28.5032
88 2 22.5242 10.2153 28.092
80 2 11.6231 15.4733 28.9404
81 1 10.7279 15.4737 29.3861
79 2 12.5225 15.471 28.5032
78 2 13.434 15.4635 28.092
21 1 40.3861 17.4032 29.3861
19 2 39.4911 18.9586 28.5032
20 2 39.9388 18.1786 28.9403
18 2 39.0419 19.7518 28.092
28 2 39.0419 30.2482 28.092
29 2 39.4911 31.0414 28.5032
30 2 39.9388 31.8214 28.9403
31 1 40.3861 32.5968 29.3861
60 2 11.6231 34.5267 28.9404
61 1 10.7279 34.5263 29.3861
59 2 12.5225 34.529 28.5032
58 2 13.434 34.5365 28.092
48 2 22.5242 39.7847 28.092
49 2 22.9864 40.5704 28.5032
50 2 23.4381 41.3481 28.9404
51 1 23.886 42.1231 29.3861
ITEM: TIMESTEP
1000
ITEM: NUMBER OF ATOMS
91
ITEM: BOX BOUNDS pp pp pp
0.0000000000000000e+00 5.0000000000000000e+01
0.0000000000000000e+00 5.0000000000000000e+01
0.0000000000000000e+00 5.0000000000000000e+01
ITEM: ATOMS id type x y z
71 1 19.9355 17.066 26.5059
70 2 20.2521 17.9245 26.1981
68 2 21.1876 19.7451 25.87
69 2 20.8987 18.7712 26.3008
67 2 21.9167 20.6081 25.7491
65 2 23.3043 22.0132 25.0208
66 2 22.575 21.552 25.3902
64 2 23.6901 22.7766 25.5259
63 2 23.9925 23.8113 25.4937
62 2 24.5644 24.709 25.3575
11 1 34.7955 25.0571 26.3841
1 1 25.2004 25.4566 24.8429
32 2 24.9224 26.4612 24.9994
2 2 26.1829 25.2595 24.6393
3 2 27.173 25.1203 24.8431
4 2 28.155 25.4771 24.9574
5 2 29.307 25.3815 24.9274
6 2 30.0365 24.701 25.2895
7 2 30.9094 24.7517 25.8647
8 2 31.8333 24.9032 25.8238
9 2 32.8175 24.8542 26.1354
10 2 33.8776 24.6807 26.1547
34 2 23.5045 27.5102 24.8841
33 2 24.2824 27.0163 25.1158
35 2 22.7821 28.2112 25.1107
36 2 22.0125 28.8511 25.4947
37 2 21.413 29.643 25.5681
38 2 20.9255 30.6932 25.9051
39 2 20.8651 31.286 26.6366
40 2 20.3542 32.1361 26.5765
41 1 20.0207 33.133 26.5796
87 2 22.0993 11.6075 27.7112
86 2 21.5178 12.299 27.2192
85 2 21.3408 13.3783 27.0726
83 2 21.0534 15.2732 27.1192
84 2 21.2811 14.317 26.8691
77 2 14.4767 16.0277 27.8917
76 2 15.3442 15.8438 27.5304
74 2 17.3855 15.6279 27.153
75 2 16.3665 15.4524 27.251
73 2 18.3352 15.8378 26.8445
72 2 19.1153 16.6629 26.8223
82 2 20.457 16.1571 26.7844
17 2 38.6214 20.7152 27.4458
16 2 37.9036 21.492 27.3041
14 2 36.7459 22.969 26.833
15 2 37.2833 22.0153 26.7488
12 2 35.5775 24.5028 26.403
13 2 36.4068 23.9034 26.75
22 2 35.1533 26.0141 26.6257
23 2 36.1656 26.1712 27.02
24 2 36.6023 26.8539 27.6335
25 2 37.062 27.6627 28.0191
26 2 37.5693 28.3987 27.758
27 2 37.8079 29.1809 28.2434
57 2 14.8361 34.3146 28.7407
56 2 15.0364 33.6736 27.9425
54 2 16.9924 33.8476 27.2492
55 2 16.0626 33.5701 27.5425
53 2 18.0157 33.4072 27.0776
52 2 18.975 33.2079 26.8553
42 2 20.155 34.1612 26.422
43 2 20.334 35.1519 26.7312
44 2 21.1093 35.6322 27.0236
45 2 21.3343 36.566 26.8375
46 2 21.3494 37.6489 26.833
47 2 21.4669 38.5407 27.4413
90 2 23.0128 8.98159 28.8345
91 1 23.0524 8.02204 28.838
89 2 22.7969 10.1124 28.5341
88 2 22.0831 10.7315 28.2699
80 2 12.2334 15.3227 27.6698
81 1 11.7669 15.6399 28.3614
79 2 13.1103 15.5133 28.0482
78 2 13.8951 15.0589 27.8152
21 1 40.3107 17.9542 28.8787
19 2 39.3992 19.2778 28.0399
20 2 39.5211 18.7268 28.8165
18 2 38.7491 19.9851 27.9671
28 2 38.5812 29.9103 28.4362
29 2 38.1534 30.6913 28.6898
30 2 38.5757 30.9661 29.404
31 1 38.9275 30.0502 29.4228
60 2 12.5117 34.2002 28.7852
61 1 11.8006 34.7105 29.11
59 2 13.4084 33.601 28.6036
58 2 13.782 34.4391 28.8123
48 2 22.0365 39.124 28.0066
49 2 22.0269 39.9256 28.6203
50 2 22.4941 40.6951 29.1199
51 1 23.3372 40.3612 29.5311
ITEM: TIMESTEP
2000
ITEM: NUMBER OF ATOMS
91
ITEM: BOX BOUNDS pp pp pp
0.0000000000000000e+00 5.0000000000000000e+01
0.0000000000000000e+00 5.0000000000000000e+01
0.0000000000000000e+00 5.0000000000000000e+01
ITEM: ATOMS id type x y z
32 2 24.7171 25.7559 25.4015
1 1 25.0792 24.7895 25.5258
2 2 25.7344 25.0976 24.8769
3 2 26.6573 25.2221 25.2272
4 2 27.706 25.235 25.4844
5 2 28.8457 25.0561 25.2661
34 2 23.1285 27.2984 25.3209
70 2 20.7216 17.7209 26.4689
69 2 21.1956 18.683 25.881
68 2 21.5105 19.6418 25.814
67 2 21.3398 20.667 25.8795
65 2 22.7104 22.1008 25.3975
66 2 22.0627 21.4212 25.6892
64 2 23.2639 22.9445 25.3616
63 2 24.3266 23.0022 25.5475
62 2 24.9852 23.7323 25.2435
6 2 29.9501 25.1557 25.1576
7 2 31.098 25.2568 25.4828
8 2 32.0463 24.8894 25.6819
9 2 33.066 24.9305 26.0134
10 2 34.0503 25.1127 25.77
12 2 34.8376 24.4346 26.6876
11 1 34.8147 25.4815 26.4882
33 2 23.7856 26.3029 25.263
36 2 21.993 28.8791 25.5431
35 2 22.4831 28.1182 25.392
37 2 21.3035 29.5962 25.9816
38 2 21.0246 30.498 26.4364
42 2 20.887 34.0166 26.7099
87 2 21.251 12.4796 27.8562
86 2 21.9481 13.3228 27.7224
85 2 21.0259 13.5669 27.7221
84 2 20.8387 14.5816 27.5476
80 2 13.2321 14.8894 28.3681
77 2 14.9598 15.3413 28.0325
78 2 14.39 14.4948 27.6435
76 2 15.9667 15.381 28.1198
74 2 17.6308 15.9901 27.2886
75 2 16.8404 15.5765 27.75
73 2 18.6905 16.2389 27.3079
82 2 20.095 16.3843 27.3756
83 2 20.1574 15.3774 27.4576
71 1 20.2868 16.8726 26.6625
72 2 19.2263 17.0397 26.8589
18 2 38.3061 20.2302 28.0447
16 2 37.729 21.6201 26.6874
15 2 37.2716 22.5013 26.8858
17 2 38.0331 20.9369 27.35
14 2 36.4532 23.113 27.0865
13 2 35.5076 23.7177 26.8876
22 2 35.2277 26.3792 26.9261
23 2 36.1948 26.7725 27.0451
24 2 36.1464 27.8401 27.3874
26 2 37.4971 28.6903 27.9863
40 2 20.3091 32.1996 27.0009
39 2 20.9402 31.4615 26.7811
55 2 17.3187 34.7841 27.2519
53 2 18.8124 33.5391 27.4926
52 2 19.4535 33.6154 26.8693
41 1 20.3753 33.2803 26.9198
54 2 17.8538 33.9613 27.777
43 2 20.8196 34.9982 26.9313
44 2 20.6664 35.9709 27.5111
45 2 21.3688 36.865 27.3431
46 2 22.1985 37.473 27.3961
47 2 23.0663 38.0532 27.5442
91 1 23.0741 8.91992 27.8233
90 2 22.5331 9.64846 28.2265
89 2 22.2753 10.6767 27.8955
88 2 21.9421 11.5204 28.0096
81 1 12.4122 14.3531 28.5172
79 2 13.3319 14.783 27.375
20 2 39.7413 19.0217 28.1708
21 1 40.6925 19.3982 28.4071
19 2 39.3577 19.8447 28.3029
25 2 36.9437 27.8154 27.8932
27 2 37.9305 29.5322 28.342
29 2 39.3217 30.822 28.4384
28 2 38.5971 30.1751 28.8318
31 1 38.7216 30.2319 27.3496
30 2 38.604 31.1453 27.9597
59 2 13.8577 34.2935 29.0445
56 2 16.3691 35.2079 27.7536
60 2 13.5712 33.5475 28.5814
61 1 12.4647 33.543 28.5336
58 2 14.6974 34.4484 28.5381
57 2 15.601 34.4486 27.9982
48 2 22.9659 39.0817 27.3005
49 2 23.2206 40.0402 27.5042
50 2 22.8193 40.5569 28.2459
51 1 22.5161 40.8256 29.2772
ITEM: TIMESTEP
3000
ITEM: NUMBER OF ATOMS
91
ITEM: BOX BOUNDS pp pp pp
0.0000000000000000e+00 5.0000000000000000e+01
0.0000000000000000e+00 5.0000000000000000e+01
0.0000000000000000e+00 5.0000000000000000e+01
ITEM: ATOMS id type x y z
66 2 22.5657 20.8591 24.3564
65 2 23.1335 21.6641 24.2797
64 2 23.4326 22.661 24.5771
2 2 26.348 24.9938 24.939
3 2 27.3618 24.5827 24.8445
1 1 25.237 25.0547 24.98
82 2 20.2484 16.3448 26.0932
68 2 21.7632 19.8394 25.8191
67 2 22.0045 20.4929 25.1752
16 2 37.2964 21.6695 26.4195
63 2 23.8128 23.5351 25.1876
62 2 24.625 24.1623 25.1326
7 2 30.29 24.8748 25.7192
8 2 31.2352 24.7201 26.1639
9 2 32.2416 24.872 26.2787
10 2 33.2969 24.8284 26.2208
32 2 24.718 26.0702 25.0807
4 2 27.679 25.3284 25.4672
5 2 28.7413 25.4977 25.2797
6 2 29.6254 25.0471 25.0674
33 2 24.2879 26.8553 25.3278
34 2 23.8137 27.7435 25.4659
36 2 22.1612 28.791 25.3909
35 2 23.1478 28.4474 25.188
37 2 21.7498 29.703 25.3853
38 2 20.9971 30.4795 25.7353
40 2 20.1986 32.0143 26.0831
39 2 20.1778 31.0338 25.9332
42 2 20.5755 33.6384 26.2078
91 1 23.4102 9.44274 27.2998
90 2 22.7936 10.0531 27.6822
89 2 22.4234 11.028 27.7392
87 2 22.4028 12.7464 27.092
88 2 22.2565 11.9362 27.6741
79 2 14.6204 14.4881 27.0331
80 2 14.0084 14.4369 27.8139
86 2 21.874 13.3042 27.6721
85 2 21.3122 13.6901 26.9324
84 2 21.0427 14.6548 27.2213
78 2 15.5583 14.9988 27.1677
77 2 16.3043 15.5179 27.4636
76 2 17.068 16.0578 27.7887
83 2 20.5997 15.5805 26.8023
75 2 17.5854 16.9366 27.7322
74 2 18.3806 16.3975 27.8067
73 2 19.0917 16.6014 27.3677
71 1 20.4674 17.2843 26.4992
72 2 19.9733 17.0906 27.3346
70 2 21.0598 18.2192 26.4925
69 2 21.5384 19.1956 26.5195
18 2 38.2219 20.0854 26.8379
19 2 38.6193 19.8743 27.8393
17 2 37.5279 20.8003 26.7585
14 2 36.1365 22.9468 26.7968
15 2 36.6752 22.1776 26.8083
12 2 34.9081 24.4656 27.3338
13 2 35.625 23.8768 27.228
11 1 34.1471 25.1621 26.7991
22 2 34.6907 25.8462 26.6581
23 2 35.2102 26.5046 27.2984
24 2 36.1748 26.8255 26.9366
30 2 38.2703 29.6492 27.3465
53 2 18.8759 33.549 26.8449
52 2 19.7563 33.689 26.5054
41 1 20.2629 32.8253 26.6003
58 2 14.5429 34.4001 27.7027
57 2 15.6287 34.3391 27.4896
55 2 17.4422 34.057 27.7619
56 2 16.6452 34.7282 27.567
54 2 18.3306 34.3494 27.3698
43 2 21.0878 34.4336 26.7088
44 2 20.8639 35.5886 26.8217
45 2 21.3448 36.4626 26.8165
46 2 21.9314 37.0632 27.3383
47 2 21.98 37.8755 27.5683
48 2 22.5063 38.7445 27.2656
49 2 22.7382 39.6906 27.1291
50 2 21.8754 40.076 27.3451
51 1 21.6021 41.0624 27.823
81 1 12.9855 14.4173 28.0161
20 2 39.4191 20.2934 28.6185
21 1 40.2425 20.5991 29.2207
25 2 36.4686 27.0126 28.0019
26 2 37.1148 27.6681 28.4935
27 2 37.6902 28.3825 28.3118
28 2 38.0841 29.3093 28.2919
31 1 37.854 29.9054 28.2516
29 2 38.7626 30.1621 28.0715
61 1 12.7224 34.8859 28.2347
60 2 13.6961 34.7259 28.5882
59 2 14.1781 33.9499 28.595
ITEM: TIMESTEP
4000
ITEM: NUMBER OF ATOMS
91
ITEM: BOX BOUNDS pp pp pp
0.0000000000000000e+00 5.0000000000000000e+01
0.0000000000000000e+00 5.0000000000000000e+01
0.0000000000000000e+00 5.0000000000000000e+01
ITEM: ATOMS id type x y z
66 2 23.7591 21.0958 25.1946
65 2 23.8263 22.0485 25.0134
64 2 24.2832 23.0618 24.9737
2 2 26.3926 26.2679 25.58
3 2 27.1385 25.5767 25.8185
1 1 25.5049 25.7122 25.4353
82 2 21.2208 16.8698 27.1306
68 2 22.8903 19.1104 25.2205
67 2 23.3155 20.0001 25.1727
16 2 36.4847 21.0097 26.7825
63 2 24.8953 23.9182 25.0989
62 2 25.1261 24.8663 25.2456
7 2 31.261 25.3852 25.9347
8 2 32.1407 25.4385 25.854
9 2 33.0234 24.8699 25.648
10 2 33.7479 24.5044 26.2662
32 2 24.9254 26.6902 25.697
4 2 28.1585 25.4973 25.9969
5 2 29.2841 25.4175 25.9297
6 2 30.2159 25.1882 26.1822
33 2 24.2738 27.3203 25.1995
34 2 23.6319 27.9393 25.7034
36 2 22.5749 29.5448 26.7065
35 2 23.1653 28.8993 25.9347
37 2 21.8015 30.1214 26.7071
38 2 21.0006 30.8703 27.1309
40 2 21.2018 32.4034 26.5206
39 2 20.4395 31.7608 27.0235
42 2 20.837 33.8792 26.5178
91 1 23.5973 10.2551 28.0287
90 2 22.9961 11.0609 27.8603
89 2 22.8525 12.1527 27.9604
87 2 22.0734 12.9732 28.0435
88 2 23.0745 13.2246 28.0111
79 2 14.9321 13.9999 27.4271
80 2 14.0506 14.5601 27.2019
86 2 22.0603 13.9783 27.8707
85 2 22.1625 14.8414 27.4943
84 2 21.3065 15.2907 27.8986
78 2 15.5697 14.7758 27.1004
77 2 16.0181 15.4064 27.7874
76 2 16.8234 15.7801 27.4703
83 2 21.7841 16.065 27.3594
75 2 17.2465 16.6545 27.7514
74 2 17.9235 16.8182 26.9942
73 2 18.8414 17.3815 27.1809
71 1 20.6927 17.5304 26.3985
72 2 19.6322 17.6196 26.5701
70 2 21.4826 18.1289 26.086
69 2 22.3501 18.6219 25.9411
18 2 38.1836 20.5957 27.3701
19 2 38.9949 20.8499 27.6627
17 2 37.3986 21.1238 27.1676
14 2 36.7005 22.8514 26.7373
15 2 36.7202 21.8895 26.5551
12 2 35.5893 24.2574 26.7713
13 2 36.491 23.7337 27.0288
11 1 34.7533 24.6968 26.2094
22 2 35.2908 24.8004 27.04
23 2 34.6526 25.5875 26.8781
24 2 34.6936 26.4137 27.5621
30 2 38.3644 28.7584 26.9836
53 2 18.3398 32.8329 26.5726
52 2 19.4213 32.959 26.6485
41 1 20.4671 32.9637 26.3936
58 2 15.2306 34.7082 27.6871
57 2 15.8579 34.1037 27.2439
55 2 17.4665 33.1587 26.5556
56 2 16.765 33.4964 27.3331
54 2 18.304 33.8079 26.3598
43 2 21.4774 34.7208 26.4371
44 2 21.1812 35.7668 26.5937
45 2 21.6373 36.4661 27.1279
46 2 21.1589 37.3185 27.3897
47 2 21.9806 37.8091 27.7821
48 2 21.456 38.7596 27.9646
49 2 22.1434 39.5312 27.7782
50 2 22.1141 40.0301 26.9365
51 1 21.5172 40.4205 27.7585
81 1 13.6664 15.4259 26.7133
20 2 39.4015 21.563 28.0493
21 1 40.0854 21.4445 28.7691
25 2 35.6049 26.4181 28.117
26 2 36.3044 27.1318 28.2072
27 2 36.9243 27.8499 28.333
28 2 36.8487 28.8478 28.1563
31 1 37.8275 29.5114 27.5173
29 2 37.6547 29.075 27.4562
61 1 13.1738 34.6714 28.3525
60 2 13.6857 35.385 28.7862
59 2 14.5321 35.2545 28.2159
ITEM: TIMESTEP
5000
ITEM: NUMBER OF ATOMS
91
ITEM: BOX BOUNDS pp pp pp
0.0000000000000000e+00 5.0000000000000000e+01
0.0000000000000000e+00 5.0000000000000000e+01
0.0000000000000000e+00 5.0000000000000000e+01
ITEM: ATOMS id type x y z
65 2 23.9926 21.5763 25.9957
64 2 24.2104 22.7492 25.9613
71 1 20.7929 17.3615 26.1103
70 2 21.0689 18.355 25.7665
68 2 22.2876 19.5592 25.7077
69 2 21.4187 19.093 25.2301
67 2 23.0422 20.1691 25.3228
66 2 23.7935 20.6996 25.6747
63 2 25.0106 23.5244 26.1916
62 2 25.3623 24.4388 26.0441
9 2 32.2736 25.3092 27.0193
10 2 33.0736 24.6723 26.4855
11 1 34.1521 24.9059 26.6489
2 2 26.4746 25.5779 26.4971
1 1 25.4385 25.3914 26.3587
3 2 27.3764 25.9837 26.1768
4 2 28.3635 25.9372 26.2633
5 2 29.4127 25.6605 26.3128
6 2 30.3093 25.9762 25.9733
7 2 31.1906 25.8723 26.4011
8 2 31.8766 25.0751 26.1446
32 2 24.5951 25.9781 26.2361
33 2 23.8882 26.9185 26.1186
35 2 23.092 28.4503 26.7025
34 2 23.1651 27.6499 26.1128
54 2 18.5002 34.8602 26.4665
41 1 20.698 33.4808 27.2704
43 2 21.3208 34.0493 26.5307
90 2 22.5035 12.4543 28.0481
80 2 14.4757 15.4553 25.6486
79 2 15.1423 15.1777 26.4899
86 2 21.7054 13.9112 26.6045
81 1 14.5093 16.3317 25.2791
78 2 15.3635 15.0447 27.4909
77 2 16.2405 15.5281 27.8338
76 2 16.8893 16.3072 27.9332
84 2 21.6821 15.278 27.404
83 2 20.7461 15.73 27.3075
85 2 21.8812 14.3328 27.6114
75 2 17.82 16.644 27.3752
74 2 18.8691 17.0246 27.5163
73 2 19.6727 17.5714 26.8994
72 2 20.2762 18.0966 26.3591
82 2 20.5082 16.4716 26.6828
16 2 37.2222 21.4787 27.1906
15 2 36.6142 22.2499 26.7123
17 2 37.5486 21.0628 27.9108
18 2 38.1371 21.1261 27.1357
19 2 38.2383 20.2958 27.7378
14 2 36.691 23.2115 26.8439
22 2 33.9973 25.019 27.6786
12 2 34.8831 24.2588 26.9396
13 2 35.8614 23.6146 27.0676
23 2 34.7273 25.6283 27.6841
24 2 35.0502 26.5688 27.9391
29 2 37.4458 28.619 28.4224
30 2 37.8816 29.3789 28.5784
37 2 22.3786 30.2333 27.4031
38 2 22.1048 31.2166 27.3097
36 2 22.5602 29.2588 27.0032
31 1 37.4377 28.9034 29.347
39 2 21.4146 32.0029 27.3956
55 2 17.563 34.6551 26.953
56 2 17.715 34.2701 27.9158
53 2 19.2304 34.1298 26.4161
52 2 19.8083 33.8006 27.1513
40 2 20.5331 32.4714 27.4949
58 2 16.2527 34.8958 27.8392
57 2 16.7644 34.1123 27.9644
42 2 21.1536 34.3784 27.5217
44 2 21.2064 34.9181 27.0738
45 2 20.8576 35.774 26.5807
46 2 21.219 36.5746 27.0519
47 2 21.9175 37.2251 27.3552
48 2 22.4827 37.7184 27.9819
49 2 21.9992 38.6378 27.7406
51 1 22.685 39.6724 27.6158
50 2 22.1202 39.1778 26.9197
91 1 22.8772 11.4019 28.1544
89 2 23.2887 11.898 28.1154
87 2 21.9328 12.9763 26.9422
88 2 22.5961 12.557 27.5214
20 2 38.9621 20.9528 27.7064
21 1 38.9289 21.901 27.9543
25 2 35.1571 26.9603 28.8402
26 2 34.8714 27.6445 28.2011
27 2 35.6525 28.2158 28.4112
28 2 36.5783 28.275 28.9207
61 1 14.8654 35.6621 27.9326
59 2 15.4498 35.0373 28.3641
60 2 14.366 34.9925 28.5905
ITEM: TIMESTEP
6000
ITEM: NUMBER OF ATOMS
91
ITEM: BOX BOUNDS pp pp pp
0.0000000000000000e+00 5.0000000000000000e+01
0.0000000000000000e+00 5.0000000000000000e+01
0.0000000000000000e+00 5.0000000000000000e+01
ITEM: ATOMS id type x y z
80 2 14.4744 15.0665 26.1636
81 1 14.2489 16.1639 26.2604
71 1 20.8256 17.3028 26.3692
72 2 20.4203 17.6063 27.4486
70 2 21.2396 18.0964 25.8531
69 2 21.6219 18.88 25.6646
68 2 22.1001 19.7163 25.9699
67 2 22.8782 20.5516 26.1003
65 2 24.5221 21.7848 25.7669
66 2 23.7656 21.0325 26.1807
64 2 24.4824 22.8478 25.9699
63 2 24.1914 23.8428 25.9323
62 2 24.7158 24.6178 25.8302
32 2 24.8684 26.5667 26.1577
1 1 25.1113 25.6059 26.1276
3 2 26.8146 26.4641 26.1393
4 2 27.7666 26.4456 25.8986
5 2 28.7364 26.3149 25.6987
6 2 29.6605 26.3569 26.1858
7 2 30.7146 26.2157 26.1463
8 2 31.6854 26.2006 26.1446
34 2 23.3865 28.1369 26.2973
33 2 24.0166 27.3179 26.2934
54 2 17.8981 33.5785 27.452
53 2 18.8228 33.9185 26.9807
87 2 21.811 12.3341 26.8957
88 2 22.8263 12.3975 27.2498
86 2 22.0441 13.2587 27.0339
85 2 22.0186 14.3473 27.0487
79 2 15.0224 15.353 26.9266
78 2 15.5621 15.2256 27.8088
77 2 16.1411 15.8772 27.6301
84 2 21.3015 15.0667 26.7129
83 2 20.5568 15.6668 26.6282
76 2 17.0568 15.9426 27.6156
75 2 17.9694 16.2236 27.9534
74 2 18.9347 16.3929 27.6307
73 2 19.8205 16.9071 27.2728
82 2 20.9356 16.444 26.8886
19 2 38.3411 20.3311 28.2307
16 2 36.862 22.1916 27.6867
17 2 37.5437 21.6143 27.4586
18 2 37.6459 21.1263 28.3653
20 2 38.2894 21.2834 28.6375
15 2 37.1673 23.0498 27.3011
14 2 36.4278 23.1617 26.5642
10 2 33.0669 25.2501 26.5683
11 1 33.9464 24.8041 26.9249
12 2 34.7447 24.2909 26.8093
13 2 35.7642 23.9316 26.8878
2 2 25.9546 26.1044 25.8366
9 2 32.7406 25.7486 25.8875
22 2 34.3816 25.4392 27.6288
23 2 34.0975 26.384 28.0587
35 2 22.777 28.6163 26.946
36 2 22.1505 29.5294 27.0294
37 2 21.8105 30.3717 27.3421
39 2 21.1885 32.2341 27.365
38 2 21.6879 31.3678 27.5
52 2 19.6558 34.2839 27.4869
40 2 20.4535 32.8456 27.9178
41 1 20.7445 33.7482 27.5162
55 2 17.369 34.2733 27.3401
58 2 16.3415 34.6508 28.0926
56 2 17.8143 35.094 27.2027
43 2 20.6047 35.1285 26.621
42 2 20.3912 34.683 27.3941
44 2 20.2984 36.0438 26.7243
61 1 14.9982 36.0417 28.042
45 2 20.6807 36.849 26.2156
46 2 21.5928 36.3545 26.2966
47 2 20.6379 36.38 26.6374
49 2 21.0044 37.9383 26.9506
51 1 21.8681 38.6252 27.7332
50 2 21.3714 38.9502 26.9899
91 1 22.8437 11.7715 28.2722
90 2 22.0063 11.0795 28.4252
89 2 22.3951 11.7505 27.8547
21 1 38.3676 22.2708 28.3847
24 2 34.4102 27.2332 28.4438
25 2 34.9451 27.5852 29.2558
26 2 35.6826 28.1108 28.9864
27 2 36.5753 28.037 29.3985
28 2 36.6591 28.9797 28.9199
29 2 36.7861 28.9514 29.8589
30 2 37.0665 29.6375 29.1017
31 1 36.1918 29.1691 29.1028
60 2 15.8548 35.8937 27.5034
59 2 15.6309 34.9365 27.4064
57 2 17.126 34.4446 27.3571
48 2 21.2352 36.9627 27.155
ITEM: TIMESTEP
7000
ITEM: NUMBER OF ATOMS
91
ITEM: BOX BOUNDS pp pp pp
0.0000000000000000e+00 5.0000000000000000e+01
0.0000000000000000e+00 5.0000000000000000e+01
0.0000000000000000e+00 5.0000000000000000e+01
ITEM: ATOMS id type x y z
80 2 14.0338 16.0112 27.0021
81 1 13.536 15.232 26.4285
71 1 20.8351 17.5996 26.9645
70 2 21.5536 18.3004 26.9347
69 2 21.7188 19.276 26.5986
68 2 22.2067 20.064 26.8862
67 2 22.8831 20.8116 26.6454
65 2 23.398 22.2129 26.4313
66 2 23.6039 21.3971 27.1358
64 2 23.4903 23.0557 26.8407
63 2 23.9244 23.8688 26.4981
62 2 24.2444 24.9479 26.4789
1 1 24.8614 25.7582 26.2605
2 2 25.7715 26.1309 26.9214
4 2 27.3853 26.8156 26.2096
5 2 28.4996 26.6673 26.3817
6 2 29.5365 26.457 26.4023
7 2 30.5219 26.2451 26.5192
8 2 31.4157 25.6313 26.3319
9 2 32.4905 25.5368 26.8522
32 2 23.9565 26.2674 26.305
33 2 23.4006 27.0585 26.2838
3 2 26.7442 26.1824 26.7723
34 2 22.956 27.791 26.7616
46 2 21.1094 37.5192 26.1954
45 2 20.8427 36.5517 25.9869
89 2 22.2347 13.0808 27.247
87 2 21.2781 12.8118 27.369
88 2 21.8287 12.1163 26.9696
86 2 21.6112 13.6464 26.9695
85 2 21.664 14.6596 27.153
79 2 15.0585 15.5671 27.3076
78 2 16.0226 15.5852 27.0349
77 2 16.9648 15.6399 26.8901
76 2 17.5503 16.2236 27.4077
83 2 20.3541 16.0412 26.9544
84 2 21.0709 15.4223 26.9875
74 2 19.2849 16.7227 27.3487
72 2 20.1462 18.2032 27.0993
73 2 20.174 17.2103 27.3325
82 2 20.2625 16.9727 26.4647
17 2 37.3253 21.6866 26.5558
14 2 35.6413 23.7311 27.0347
16 2 37.0031 22.4774 27.0685
15 2 36.4482 23.1025 26.7655
11 1 34.3247 25.3443 27.2778
12 2 34.9849 24.5384 27.1706
13 2 35.9837 24.5282 26.984
10 2 33.3411 25.1854 27.1367
22 2 35.032 25.6812 27.7752
35 2 22.9374 28.9002 26.858
37 2 21.5789 30.2509 27.1627
36 2 21.8884 29.3848 26.9584
39 2 21.2223 32.3041 26.7162
38 2 21.697 31.3925 26.8513
54 2 18.1311 33.1094 27.2488
40 2 20.4955 32.8615 27.304
41 1 19.9289 33.6739 27.046
59 2 16.3067 35.3858 26.9234
55 2 17.7186 34.1402 27.4224
57 2 17.1077 34.4683 27.7253
53 2 19.0434 32.9469 27.1275
56 2 17.5402 34.7078 26.8321
52 2 19.0024 33.9773 27.1717
42 2 20.4805 34.5512 27.3859
43 2 19.8219 34.9542 26.6971
60 2 15.7087 35.7523 26.3671
44 2 20.3929 35.5273 25.9328
47 2 21.3974 36.9089 25.4402
49 2 20.6872 37.6118 26.4763
48 2 20.9523 36.6603 26.1769
51 1 20.3304 38.58 27.2376
50 2 20.9433 37.937 27.3674
90 2 21.5266 12.542 27.5978
91 1 22.6036 13.0713 27.5184
75 2 18.2558 16.922 27.5117
19 2 38.3471 20.8297 27.9677
18 2 37.6252 20.748 27.0901
20 2 39.205 20.7153 28.6036
21 1 38.2932 21.151 28.9391
23 2 35.3588 26.5861 27.7685
24 2 34.568 27.054 28.1302
25 2 35.1183 27.2379 29.0999
26 2 36.0171 27.8554 29.1853
27 2 35.6508 28.6296 28.7234
28 2 36.2346 28.9998 29.5681
31 1 36.4669 30.1483 30.481
30 2 35.8388 30.4522 29.6416
58 2 17.045 35.4474 27.4517
61 1 16.5055 35.2249 26.6878
29 2 36.5062 29.9384 29.2364
ITEM: TIMESTEP
8000
ITEM: NUMBER OF ATOMS
91
ITEM: BOX BOUNDS pp pp pp
0.0000000000000000e+00 5.0000000000000000e+01
0.0000000000000000e+00 5.0000000000000000e+01
0.0000000000000000e+00 5.0000000000000000e+01
ITEM: ATOMS id type x y z
81 1 15.4382 16.1963 26.9058
82 2 21.338 17.1789 26.9903
65 2 24.2101 21.9917 26.9714
62 2 24.7589 24.4705 26.9671
1 1 25.352 25.3573 26.8127
32 2 24.7699 26.1872 26.9359
6 2 29.7331 25.8149 26.8852
8 2 31.2783 25.6468 27.0863
33 2 24.0091 26.8819 26.8349
4 2 27.868 26.7951 26.6971
5 2 28.7978 26.3289 26.8412
60 2 15.3958 35.279 27.791
44 2 20.5166 36.0901 25.7971
45 2 20.9332 36.9341 25.5405
48 2 21.152 38.5293 25.5411
46 2 21.7136 37.1203 25.2105
47 2 21.9495 37.9613 25.6498
87 2 21.6065 13.9321 27.3735
88 2 21.7018 13.1457 27.8227
90 2 21.5771 13.0399 27.1566
89 2 22.5973 13.2818 27.3723
91 1 21.7217 12.2537 26.7601
86 2 21.2981 14.5141 28.0847
85 2 21.8654 14.4619 27.2493
80 2 15.5616 16.1672 27.8128
79 2 15.4836 17.1891 27.7492
78 2 15.9568 16.2979 28.0409
77 2 16.8169 15.7473 27.7038
83 2 21.5672 16.2863 27.4053
84 2 21.748 15.266 27.2712
76 2 17.5515 15.5029 27.2232
75 2 18.104 16.2644 27.6043
74 2 18.8815 16.7749 27.8479
73 2 19.4042 17.5988 27.5347
71 1 21.0815 18.0971 26.7589
72 2 20.0445 17.9893 26.948
70 2 21.9268 18.5017 26.9969
69 2 22.6369 18.8503 27.7012
68 2 22.6385 19.8123 27.1892
67 2 23.0977 20.6973 27.23
66 2 23.873 21.1113 27.4046
17 2 37.0703 21.648 27.0335
18 2 36.1775 21.1016 27.1858
64 2 24.3819 22.9378 26.5004
15 2 35.6893 23.0758 26.9347
16 2 36.5207 22.3791 27.0921
63 2 24.0962 23.8602 26.8151
12 2 35.1542 25.4956 27.7747
14 2 35.5682 24.1297 26.9431
13 2 35.5475 24.5882 27.7633
2 2 26.3315 25.7626 26.5841
3 2 26.8406 26.6168 26.7176
7 2 30.6381 26.1795 26.5188
9 2 32.1334 25.0833 27.3064
10 2 33.0395 25.342 27.3274
11 1 34.0182 25.2925 27.5262
22 2 34.744 25.7664 28.0554
34 2 23.4555 27.6958 26.8607
23 2 35.0238 26.5719 28.5383
36 2 22.6338 29.7316 26.9471
35 2 23.1862 28.7638 26.7597
37 2 22.2337 30.6583 26.7077
39 2 21.4746 32.445 26.9173
38 2 21.3693 31.347 26.6107
54 2 17.8368 33.3309 27.1031
53 2 18.5728 34.0393 26.6755
40 2 20.7213 33.1572 26.871
41 1 19.9099 33.9041 26.6928
57 2 17.6851 34.1814 27.4924
56 2 17.6859 33.3635 27.0396
61 1 16.0643 36.0245 27.6217
55 2 18.0768 34.1731 26.6251
52 2 19.3025 34.3547 27.2845
42 2 20.0637 34.6853 26.2566
43 2 19.934 35.3975 25.4772
59 2 16.479 35.4941 27.9055
58 2 17.2864 34.9467 27.9862
49 2 20.8111 37.9241 26.2059
50 2 19.8835 38.039 26.6729
51 1 19.826 38.5094 27.54
19 2 37.2121 21.527 27.4308
20 2 36.6056 20.8386 27.8408
21 1 36.9984 21.696 28.1614
24 2 34.3645 27.3066 28.4079
25 2 35.2288 27.4896 28.6314
26 2 36.0841 27.7424 28.0405
27 2 36.1865 28.6702 27.7534
29 2 36.0342 28.8961 28.041
28 2 36.4623 29.5786 27.5067
31 1 36.2179 29.6885 29.7636
30 2 36.471 29.1827 28.9677
ITEM: TIMESTEP
9000
ITEM: NUMBER OF ATOMS
91
ITEM: BOX BOUNDS pp pp pp
0.0000000000000000e+00 5.0000000000000000e+01
0.0000000000000000e+00 5.0000000000000000e+01
0.0000000000000000e+00 5.0000000000000000e+01
ITEM: ATOMS id type x y z
72 2 20.3604 18.3686 25.9915
68 2 23.1651 19.508 26.0741
34 2 24.6647 29.0524 26.3421
35 2 23.8531 29.3332 26.1663
61 1 16.4589 35.4945 26.3028
44 2 20.4298 35.6914 26.1758
45 2 20.8963 36.4044 25.5493
48 2 20.1154 37.9466 25.9433
47 2 20.9937 37.4612 26.066
49 2 20.095 38.9462 25.8969
88 2 21.7403 12.0562 27.1928
90 2 20.8747 12.6626 27.5535
91 1 21.0539 12.9113 26.5675
87 2 22.1408 12.677 27.8665
85 2 21.8208 14.5296 27.5226
86 2 21.8569 13.4411 27.4844
81 1 15.9846 15.7952 27.6796
84 2 21.5482 15.1947 26.8904
79 2 16.0232 16.4849 27.2562
80 2 16.8559 16.3244 27.9101
76 2 17.5754 17.0215 27.5824
78 2 17.074 16.4158 27.2355
82 2 20.899 17.0497 27.0414
83 2 21.6112 16.2392 26.9452
75 2 17.9624 17.7859 27.275
74 2 18.7968 18.1522 27.048
73 2 19.5921 18.5579 26.6441
71 1 21.1956 17.965 26.5102
70 2 21.6843 18.8024 26.8356
69 2 22.65 18.7227 26.4742
67 2 23.606 20.3976 26.4997
66 2 23.4747 21.5333 26.8954
18 2 36.191 21.3012 27.5071
17 2 37.0187 21.6877 27.2195
19 2 37.1807 21.8415 27.4606
65 2 23.649 22.5949 26.9679
64 2 24.2127 23.2715 26.722
15 2 35.7399 23.1681 27.6109
16 2 36.3815 22.4774 27.4853
63 2 24.8672 23.9553 26.4962
62 2 25.163 24.996 26.696
14 2 35.4895 24.2417 27.8968
1 1 25.375 26.1144 26.6404
2 2 26.3916 26.3579 26.7869
3 2 27.4315 26.0785 27.0836
9 2 32.2588 25.8804 27.5954
10 2 33.2738 26.0977 27.7331
12 2 35.1895 25.1733 27.1562
11 1 34.3002 25.7763 27.3949
13 2 35.9445 25.1962 27.7652
32 2 25.0115 27.1703 26.573
5 2 29.1752 26.8128 27.6963
4 2 28.321 26.5605 27.1669
6 2 30.0078 27.4356 27.5278
7 2 30.8659 26.9159 27.5373
23 2 33.9784 27.1912 27.8628
33 2 25.1804 28.1315 26.5026
36 2 23.3449 30.0024 26.84
37 2 22.4965 30.6894 26.7352
38 2 21.5282 31.3163 26.5939
39 2 20.7834 31.4867 27.435
55 2 18.161 33.6289 27.839
40 2 20.417 32.3596 26.7725
41 1 20.1372 33.3581 27.1748
52 2 19.3067 33.7886 27.7449
56 2 17.4329 34.2539 27.5046
59 2 17.5054 35.0741 27.233
54 2 18.0078 33.8596 26.9027
53 2 18.5205 34.39 27.4837
58 2 18.0772 35.2128 27.9392
42 2 19.9225 34.2159 27.0851
43 2 19.9359 35.0189 26.6017
60 2 16.76 35.8485 27.1436
46 2 21.151 36.5656 26.5406
50 2 19.6832 39.7025 26.599
51 1 19.8027 39.5543 27.5627
89 2 21.6955 12.1149 28.0688
77 2 17.1591 16.1136 28.1084
20 2 36.7781 21.7741 28.4029
21 1 37.7682 21.7075 28.1663
22 2 34.1071 26.2375 28.2163
8 2 31.6709 26.5506 28.0156
24 2 34.8455 26.6606 27.9643
25 2 34.8683 27.467 28.0245
26 2 35.2052 28.3496 28.6292
27 2 35.9818 28.3432 27.9582
28 2 36.9664 28.5499 28.0691
29 2 36.9252 28.7728 29.0779
31 1 35.7867 29.81 28.979
57 2 17.196 34.7185 28.2743
30 2 36.3913 29.4581 29.6408
ITEM: TIMESTEP
10000
ITEM: NUMBER OF ATOMS
91
ITEM: BOX BOUNDS pp pp pp
0.0000000000000000e+00 5.0000000000000000e+01
0.0000000000000000e+00 5.0000000000000000e+01
0.0000000000000000e+00 5.0000000000000000e+01
ITEM: ATOMS id type x y z
72 2 20.4814 17.6195 27.2119
68 2 22.7042 20.1306 26.5018
34 2 23.9811 28.8905 27.3057
35 2 23.5702 29.8205 27.4617
61 1 16.6854 36.3914 27.552
44 2 19.2822 35.3554 26.5825
45 2 19.7109 36.1811 26.3584
48 2 20.1249 37.5963 26.1109
47 2 20.6647 37.6079 26.9517
49 2 19.5898 38.4242 26.4103
88 2 21.9588 11.8963 26.961
90 2 20.8755 13.1827 26.8473
91 1 21.2565 12.3951 26.3179
87 2 22.1398 12.7806 27.4277
85 2 21.6772 14.0551 27.6951
86 2 22.5246 13.6932 27.3749
81 1 16.9294 15.2458 27.531
84 2 21.2165 14.9223 27.415
79 2 17.0524 16.6799 26.9989
80 2 16.2695 16.0276 27.3779
76 2 18.3593 17.7064 27.1678
78 2 17.907 16.3903 27.6217
82 2 21.0405 17.0381 27.5265
83 2 20.9464 16.0129 27.7847
75 2 18.7253 18.3654 26.5028
74 2 19.4334 19.0732 26.8413
73 2 19.7973 18.3194 27.394
71 1 21.4286 17.9072 27.0314
70 2 21.8649 18.4488 26.3461
69 2 22.5004 19.0895 26.0624
67 2 22.9028 21.0297 26.2078
66 2 23.2465 21.8638 26.4575
18 2 36.9819 21.4686 27.3415
17 2 36.3345 22.109 27.1613
19 2 37.4548 22.1767 27.8812
65 2 23.7219 22.9606 26.6129
64 2 24.5338 23.8439 26.766
15 2 36.6489 23.83 27.6504
16 2 36.1399 22.9137 27.9259
63 2 24.8006 24.586 27.515
62 2 25.3705 25.3276 27.1311
14 2 35.7765 23.9567 27.7364
1 1 25.4579 26.3975 27.0198
2 2 26.2797 26.0868 27.3891
3 2 26.9213 26.1708 28.1382
9 2 32.1719 26.2968 27.1673
10 2 33.2644 26.1362 27.4645
12 2 35.0983 25.3206 27.1421
11 1 34.2438 25.9647 27.4391
13 2 35.9503 24.8331 27.499
32 2 25.1796 27.3683 26.8344
5 2 28.1869 26.5223 26.6636